# vtk DataFile Version 3.0
LAPLACIEN  2D
ASCII
DATASET UNSTRUCTURED_GRID
 POINTS         481  float
   6.2500000000000000E-002  0.87500000000000000        0.0000000000000000     
  0.12500000000000000       0.87500000000000000        0.0000000000000000     
  0.12500000000000000       0.93750000000000000        0.0000000000000000     
   3.7499999999999999E-002  0.91249999999999998        0.0000000000000000     
   8.1250000000000003E-002  0.91874999999999996        0.0000000000000000     
   8.7499999999999994E-002  0.96250000000000002        0.0000000000000000     
   4.3749999999999997E-002  0.95625000000000004        0.0000000000000000     
  0.18750000000000000       0.87500000000000000        0.0000000000000000     
  0.25000000000000000       0.87500000000000000        0.0000000000000000     
  0.25000000000000000       0.93750000000000000        0.0000000000000000     
  0.16250000000000001       0.91249999999999998        0.0000000000000000     
  0.20624999999999999       0.91874999999999996        0.0000000000000000     
  0.21249999999999999       0.96250000000000002        0.0000000000000000     
  0.16875000000000001       0.95625000000000004        0.0000000000000000     
   6.2500000000000000E-002  0.75000000000000000        0.0000000000000000     
  0.12500000000000000       0.75000000000000000        0.0000000000000000     
  0.12500000000000000       0.81250000000000000        0.0000000000000000     
   3.7499999999999999E-002  0.78749999999999998        0.0000000000000000     
   8.1250000000000003E-002  0.79374999999999996        0.0000000000000000     
   8.7499999999999994E-002  0.83750000000000002        0.0000000000000000     
   4.3749999999999997E-002  0.83125000000000004        0.0000000000000000     
  0.18750000000000000       0.75000000000000000        0.0000000000000000     
  0.25000000000000000       0.75000000000000000        0.0000000000000000     
  0.25000000000000000       0.81250000000000000        0.0000000000000000     
  0.16250000000000001       0.78749999999999998        0.0000000000000000     
  0.20624999999999999       0.79374999999999996        0.0000000000000000     
  0.21249999999999999       0.83750000000000002        0.0000000000000000     
  0.16875000000000001       0.83125000000000004        0.0000000000000000     
  0.31250000000000000       0.87500000000000000        0.0000000000000000     
  0.37500000000000000       0.87500000000000000        0.0000000000000000     
  0.37500000000000000       0.93750000000000000        0.0000000000000000     
  0.28749999999999998       0.91249999999999998        0.0000000000000000     
  0.33124999999999999       0.91874999999999996        0.0000000000000000     
  0.33750000000000002       0.96250000000000002        0.0000000000000000     
  0.29375000000000001       0.95625000000000004        0.0000000000000000     
  0.43750000000000000       0.87500000000000000        0.0000000000000000     
  0.50000000000000000       0.87500000000000000        0.0000000000000000     
  0.50000000000000000       0.93750000000000000        0.0000000000000000     
  0.41249999999999998       0.91249999999999998        0.0000000000000000     
  0.45624999999999999       0.91874999999999996        0.0000000000000000     
  0.46250000000000002       0.96250000000000002        0.0000000000000000     
  0.41875000000000001       0.95625000000000004        0.0000000000000000     
  0.31250000000000000       0.75000000000000000        0.0000000000000000     
  0.37500000000000000       0.75000000000000000        0.0000000000000000     
  0.37500000000000000       0.81250000000000000        0.0000000000000000     
  0.28749999999999998       0.78749999999999998        0.0000000000000000     
  0.33124999999999999       0.79374999999999996        0.0000000000000000     
  0.33750000000000002       0.83750000000000002        0.0000000000000000     
  0.29375000000000001       0.83125000000000004        0.0000000000000000     
  0.43750000000000000       0.75000000000000000        0.0000000000000000     
  0.50000000000000000       0.75000000000000000        0.0000000000000000     
  0.50000000000000000       0.81250000000000000        0.0000000000000000     
  0.41249999999999998       0.78749999999999998        0.0000000000000000     
  0.45624999999999999       0.79374999999999996        0.0000000000000000     
  0.46250000000000002       0.83750000000000002        0.0000000000000000     
  0.41875000000000001       0.83125000000000004        0.0000000000000000     
   6.2500000000000000E-002  0.62500000000000000        0.0000000000000000     
  0.12500000000000000       0.62500000000000000        0.0000000000000000     
  0.12500000000000000       0.68750000000000000        0.0000000000000000     
   3.7499999999999999E-002  0.66249999999999998        0.0000000000000000     
   8.1250000000000003E-002  0.66874999999999996        0.0000000000000000     
   8.7499999999999994E-002  0.71250000000000002        0.0000000000000000     
   4.3749999999999997E-002  0.70625000000000004        0.0000000000000000     
  0.18750000000000000       0.62500000000000000        0.0000000000000000     
  0.25000000000000000       0.62500000000000000        0.0000000000000000     
  0.25000000000000000       0.68750000000000000        0.0000000000000000     
  0.16250000000000001       0.66249999999999998        0.0000000000000000     
  0.20624999999999999       0.66874999999999996        0.0000000000000000     
  0.21249999999999999       0.71250000000000002        0.0000000000000000     
  0.16875000000000001       0.70625000000000004        0.0000000000000000     
   6.2500000000000000E-002  0.50000000000000000        0.0000000000000000     
  0.12500000000000000       0.50000000000000000        0.0000000000000000     
  0.12500000000000000       0.56250000000000000        0.0000000000000000     
   3.7499999999999999E-002  0.53749999999999998        0.0000000000000000     
   8.1250000000000003E-002  0.54374999999999996        0.0000000000000000     
   8.7499999999999994E-002  0.58750000000000002        0.0000000000000000     
   4.3749999999999997E-002  0.58125000000000004        0.0000000000000000     
  0.18750000000000000       0.50000000000000000        0.0000000000000000     
  0.25000000000000000       0.50000000000000000        0.0000000000000000     
  0.25000000000000000       0.56250000000000000        0.0000000000000000     
  0.16250000000000001       0.53749999999999998        0.0000000000000000     
  0.20624999999999999       0.54374999999999996        0.0000000000000000     
  0.21249999999999999       0.58750000000000002        0.0000000000000000     
  0.16875000000000001       0.58125000000000004        0.0000000000000000     
  0.31250000000000000       0.62500000000000000        0.0000000000000000     
  0.37500000000000000       0.62500000000000000        0.0000000000000000     
  0.37500000000000000       0.68750000000000000        0.0000000000000000     
  0.28749999999999998       0.66249999999999998        0.0000000000000000     
  0.33124999999999999       0.66874999999999996        0.0000000000000000     
  0.33750000000000002       0.71250000000000002        0.0000000000000000     
  0.29375000000000001       0.70625000000000004        0.0000000000000000     
  0.43750000000000000       0.62500000000000000        0.0000000000000000     
  0.50000000000000000       0.62500000000000000        0.0000000000000000     
  0.50000000000000000       0.68750000000000000        0.0000000000000000     
  0.41249999999999998       0.66249999999999998        0.0000000000000000     
  0.45624999999999999       0.66874999999999996        0.0000000000000000     
  0.46250000000000002       0.71250000000000002        0.0000000000000000     
  0.41875000000000001       0.70625000000000004        0.0000000000000000     
  0.31250000000000000       0.50000000000000000        0.0000000000000000     
  0.37500000000000000       0.50000000000000000        0.0000000000000000     
  0.37500000000000000       0.56250000000000000        0.0000000000000000     
  0.28749999999999998       0.53749999999999998        0.0000000000000000     
  0.33124999999999999       0.54374999999999996        0.0000000000000000     
  0.33750000000000002       0.58750000000000002        0.0000000000000000     
  0.29375000000000001       0.58125000000000004        0.0000000000000000     
  0.43750000000000000       0.50000000000000000        0.0000000000000000     
  0.50000000000000000       0.50000000000000000        0.0000000000000000     
  0.50000000000000000       0.56250000000000000        0.0000000000000000     
  0.41249999999999998       0.53749999999999998        0.0000000000000000     
  0.45624999999999999       0.54374999999999996        0.0000000000000000     
  0.46250000000000002       0.58750000000000002        0.0000000000000000     
  0.41875000000000001       0.58125000000000004        0.0000000000000000     
  0.56250000000000000       0.87500000000000000        0.0000000000000000     
  0.62500000000000000       0.87500000000000000        0.0000000000000000     
  0.62500000000000000       0.93750000000000000        0.0000000000000000     
  0.53749999999999998       0.91249999999999998        0.0000000000000000     
  0.58125000000000004       0.91874999999999996        0.0000000000000000     
  0.58750000000000002       0.96250000000000002        0.0000000000000000     
  0.54374999999999996       0.95625000000000004        0.0000000000000000     
  0.68750000000000000       0.87500000000000000        0.0000000000000000     
  0.75000000000000000       0.87500000000000000        0.0000000000000000     
  0.75000000000000000       0.93750000000000000        0.0000000000000000     
  0.66249999999999998       0.91249999999999998        0.0000000000000000     
  0.70625000000000004       0.91874999999999996        0.0000000000000000     
  0.71250000000000002       0.96250000000000002        0.0000000000000000     
[...]
 CELL_DATA         896
 SCALARS U float
 LOOKUP_TABLE default
    0.32018785546104704121E-02
    0.51180987947637649610E-02
    0.84963029153663494064E-02
    0.84963029155391365382E-02
    0.51180987953001891647E-02
    0.32018785551208533806E-02
    0.54260333464694232748E-03
    0.15266718096146394967E-02
    0.34346745775022701538E-03
    0.34346745767046415890E-03
    0.15266718089649278754E-02
    0.54260333452353886989E-03
    0.33993696965031686835E-02
    0.33993696966774077789E-02
    0.13838728215534962934E-01
    0.13478055580527024959E-01
    0.17099390479408671517E-01
    0.15421286189560580102E-01
    0.99939323394658205468E-02
    0.56186476150247161021E-02
    0.10768763193417490564E-02
    0.39250770250290143576E-02
    0.16208263901536529988E-02
    0.35889871333205994319E-02
    0.76362274670449667088E-02
    0.97158587973636290763E-02
    0.94256754629294513953E-02
    0.83681774861551431327E-02
    0.56186476152561420916E-02
    0.99939323411012553899E-02
    0.15421286190685180514E-01
    0.17099390480637976369E-01
    0.13478055582579836005E-01
    0.13838728216016274106E-01
    0.97158587970965406416E-02
    0.76362274656220458999E-02
    0.35889871326458496793E-02
    0.16208263896778415513E-02
    0.39250770231378908151E-02
    0.10768763191845499329E-02
    0.83681774861836741297E-02
    0.94256754630880762447E-02
    0.24354427271338498218E-01
    0.26323696853397381135E-01
    0.31008684435001179075E-01
    0.31008684434838278132E-01
    0.26323696853041200772E-01
    0.24354427270493871766E-01
    0.19521806242219996719E-01
    0.19648894779697279045E-01
    0.15662262540871971922E-01
    0.15662262541103918329E-01
    0.19648894780114903313E-01
    0.19521806243188336710E-01
    0.23186518162159965722E-01
    0.23186518162046313579E-01
    0.21201088020297190889E-01
    0.19058310996855114261E-01
    0.22575823837961486729E-01
    0.19684868635228079670E-01
    0.13071064389216836138E-01
    0.70852581457625189026E-02
    0.14153133681805601159E-02
    0.55214629816956193112E-02
    0.25069413437250986747E-02
    0.58796845919944070932E-02
    0.11887130092188342989E-01
    0.16231232415243636302E-01
    0.13472010814362804162E-01
    0.11656338784749134194E-01
    0.25289616591826626774E-01
    0.21859535744891685910E-01
    0.24926316231731450446E-01
    0.21287600744778121392E-01
    0.14349954485469636548E-01
    0.76019209934880833252E-02
    0.15579976679293895160E-02
    0.63164279731219999739E-02
    0.30028926340628248753E-02
    0.72192345863378174289E-02
    0.14280113101410966958E-01
    0.20086362885686732255E-01
    0.15539016675240692467E-01
    0.13264443655097183858E-01
    0.37323929789009904767E-01
    0.37224661120256394287E-01
    0.40928759358073663055E-01
    0.39569308973783468009E-01
    0.34430430694637366440E-01
    0.30743967715870238605E-01
    0.25760234854989679659E-01
    0.27644938118166054175E-01
    0.24021004403152790979E-01
    0.25572314087955808071E-01
    0.30590638928010539799E-01
    0.32621494672298252671E-01
    0.33135824548633688313E-01
    0.32292113191929067151E-01
    0.44527892119946822780E-01
    0.42697737708845530380E-01
    0.45182432310715212043E-01
    0.42782092136928365211E-01
    0.37799147365818193400E-01
    0.33008090699243604338E-01
    0.28431989053350373992E-01
    0.31625678250020577975E-01
    0.28667225826125533605E-01
    0.31355330531918190751E-01
    0.36751459006184206135E-01
    0.40373714563181048454E-01
    0.38217153995869349026E-01
    0.36743539786799138402E-01
    0.70852581461754498768E-02
    0.13071064391247810485E-01
    0.19684868636867934588E-01
    0.22575823839847443397E-01
    0.19058310999648952339E-01
    0.21201088021781749893E-01
    0.16231232416087496007E-01
    0.11887130091506313903E-01
    0.58796845918770842751E-02
    0.25069413434368986553E-02
    0.55214629800476268048E-02
    0.14153133680684449377E-02
    0.11656338785245985018E-01
    0.13472010815113616769E-01
    0.30743967717419610347E-01
    0.34430430695828351251E-01
    0.39569308974779136834E-01
    0.40928759358816763081E-01
    0.37224661120914305512E-01
    0.37323929789298680715E-01
    0.32621494672610683307E-01
    0.30590638928752359599E-01
    0.25572314088926864639E-01
    0.24021004404437197588E-01
    0.27644938119497444035E-01
    0.25760234856679230936E-01
    0.32292113192992293047E-01
    0.33135824549532018335E-01
    0.76019209940008537069E-02
    0.14349954487708477605E-01
    0.21287600746712893179E-01
    0.24926316233986313409E-01
    0.21859535748058222387E-01
    0.25289616593803909694E-01
    0.20086362886995258459E-01
    0.14280113101023653513E-01
    0.72192345863834953001E-02
    0.30028926338347382285E-02
    0.63164279715787526731E-02
    0.15579976678392571873E-02
    0.13264443655813151074E-01
    0.15539016676262749905E-01
    0.33008090701238806952E-01
    0.37799147367544576326E-01
    0.42782092138495333988E-01
    0.45182432312083714576E-01
    0.42697737710164926361E-01
    0.44527892120982494328E-01
    0.40373714564273924243E-01
    0.36751459007605707940E-01
    0.31355330533537825732E-01
    0.28667225827959816331E-01
    0.31625678251871847113E-01
    0.28431989055458874865E-01
    0.36743539788440873761E-01
    0.38217153997388196573E-01
    0.47122067428796203525E-01
    0.48689400976476449046E-01
    0.52223130354749638937E-01
    0.52223130354633592876E-01
    0.48689400976236106577E-01
    0.47122067428229351405E-01
    0.43050198347783008579E-01
    0.43040752702214815639E-01
    0.39205303317096117099E-01
    0.39205303317236525618E-01
    0.43040752702473768221E-01
    0.43050198348383701685E-01
    0.46147457804030740658E-01
    0.46147457803957341038E-01
    0.56220150307710999027E-01
    0.55848810031908398266E-01
    0.57647215235005454248E-01
    0.56459762329359723665E-01
    0.53453444051842255447E-01
    0.50596340210351489763E-01
    0.47518333628555904646E-01
    0.49238828323742517279E-01
    0.46780657508374165476E-01
    0.48064031056240054396E-01
    0.51709925272331071222E-01
    0.53282788729388602667E-01
    0.53223372930580187257E-01
    0.52507972161665888988E-01
    0.50596340211560057731E-01
    0.53453444052772511319E-01
    0.56459762330168340727E-01
    0.57647215235606973083E-01
    0.55848810032418733096E-01
    0.56220150307931697486E-01
    0.53282788729616607781E-01
    0.51709925272867759971E-01
    0.48064031056913217310E-01
    0.46780657509277775996E-01
    0.49238828324717071050E-01
    0.47518333629804683504E-01
    0.52507972162467449195E-01
    0.53223372931255688578E-01
    0.60367197275196717021E-01
    0.61313616494112092858E-01
    0.62321456066707955901E-01
    0.62321456066604510871E-01
    0.61313616493905466476E-01
    0.60367197274711709154E-01
    0.58814527087556536800E-01
    0.59156775917752479899E-01
    0.57347192639636487832E-01
    0.57347192639745699083E-01
    0.59156775917963484723E-01
    0.58814527088049656234E-01
    0.60558656490721590737E-01
    0.60558656490660202343E-01
    0.26104771129648044609E-01
    0.21882032568365298447E-01
    0.24151105866329510702E-01
    0.20229643133374948516E-01
    0.13830734502012402912E-01
    0.71686874321305162419E-02
    0.15049437313738767315E-02
    0.63100588861176266572E-02
    0.31087409449209258208E-02
    0.76078126658535756566E-02
    0.14815463184913670383E-01
    0.21281723704032806666E-01
    0.15626922325772982930E-01
    0.13192666917432092563E-01
    0.23646629322409670748E-01
    0.19125803573437391569E-01
    0.20250118622355168380E-01
    0.16510892117311222471E-01
    0.11513354044387680980E-01
    0.57855152400391705869E-02
    0.12561465276837596207E-02
    0.55023550936997966260E-02
    0.28244963161319918028E-02
    0.70454565785825346014E-02
    0.13493232536611865155E-01
    0.19817432829065655814E-01
    0.13735736329832446204E-01
    0.11441001661957142868E-01
    0.45966952251432276200E-01
    0.42743418000650512667E-01
    0.43770067532249865017E-01
    0.40647313976608805131E-01
    0.36430158693208106180E-01
    0.31147010648413825384E-01
    0.27537335175470953330E-01
    0.31591519541406189175E-01
    0.29601434268652162402E-01
    0.33011950922606697612E-01
    0.38131969545194016602E-01
    0.42779203340926420795E-01
    0.38430990667517171688E-01
    0.36541224849005515818E-01
    0.41641229403181247160E-01
    0.37361705874302646169E-01
    0.36691547034878459199E-01
    0.33164790199540716831E-01
    0.30323342307889952774E-01
    0.25160552937810425761E-01
    0.23076188847983052782E-01
    0.27542459012443211430E-01
    0.26823717489813422854E-01
    0.30542330012032263553E-01
    0.34732293672689248942E-01
    0.39838169278483562263E-01
    0.33777353488492582734E-01
    0.31685150239783743675E-01
    0.17914943304307102967E-01
    0.13590550555897364451E-01
    0.13222911786914322285E-01
    0.10130887255301226219E-01
    0.73975361669338813436E-02
    0.34522326891662340198E-02
    0.81157730153828193213E-03
    0.38932290407822744797E-02
    0.21501301014626374337E-02
    0.55321104189155036537E-02
    0.10313284512458813919E-01
    0.15693344246607756481E-01
    0.98652536646387251756E-02
    0.80092532085901044225E-02
    0.89089106368777752631E-02
    0.52751466829735176728E-02
    0.30675773508643251579E-02
    0.10855694043838402026E-02
    0.14825521941863447836E-02
    0.17154153444500069565E-03
    0.17154153444500378563E-03
    0.14825521941863443499E-02
    0.10855694043838406363E-02
    0.30675773508643234232E-02
    0.52751466829735202749E-02
    0.89089106368777839368E-02
    0.40148057317731956212E-02
    0.28968619605043112106E-02
    0.31550356512958288580E-01
    0.26552117915939980192E-01
    0.23946233051422884108E-01
    0.20333800568179547646E-01
    0.19478085825586712726E-01
    0.15048061109540997529E-01
    0.15048061109541002733E-01
    0.19478085825586719665E-01
    0.20333800568179554585E-01
    0.23946233051422887578E-01
    0.26552117915940007947E-01
    0.31550356512958316335E-01
    0.24255804081562321733E-01
    0.22174844334494868414E-01
    0.15693344246607739134E-01
    0.10313284512458808714E-01
    0.55321104189154958475E-02
    0.21501301014626348317E-02
    0.38932290407822705766E-02
    0.81157730153828149845E-03
    0.34522326891662318514E-02
    0.73975361669338856804E-02
    0.10130887255301217545E-01
    0.13222911786914315346E-01
    0.13590550555897355778E-01
    0.17914943304307099498E-01
    0.98652536646387217062E-02
    0.80092532085901044225E-02
    0.58038861865886505476E-01
    0.55909178336746065408E-01
    0.55841948887826793613E-01
    0.53638962531103971665E-01
    0.51517153367965445865E-01
    0.47747023610358513279E-01
    0.46026272139441985753E-01
    0.49185373105517626868E-01
    0.48299024582948942019E-01
    0.50597931284746371083E-01
    0.53653129115853119557E-01
    0.56458755948584217477E-01
    0.53520398340393349201E-01
    0.52217859868675955970E-01
    0.52578329990052304066E-01
    0.48870510348600737505E-01
    0.46807203603333916164E-01
    0.43760526721521045279E-01
    0.42880382946729148075E-01
    0.38573892791525649093E-01
    0.38573892791525635215E-01
    0.42880382946729182769E-01
    0.43760526721521038340E-01
    0.46807203603333909225E-01
    0.48870510348600723627E-01
    0.52578329990052297127E-01
    0.47038556245576144954E-01
    0.45277098980931962391E-01
    0.62321293377925253421E-01
    0.61380176685304259354E-01
    0.60367554858092073444E-01
    0.59205460483039540343E-01
    0.59092520057688481538E-01
    0.56969314634877761538E-01
    0.56969314634877775416E-01
    0.59092520057688488477E-01
    0.59205460483039547281E-01
    0.60367554858092059566E-01
    0.61380176685304259354E-01
    0.62321293377925246482E-01
    0.60896124403775682421E-01
    0.60223492878434627118E-01
    0.56458755948584210538E-01
    0.53653129115853105680E-01
    0.50597931284746371083E-01
    0.48299024582948928142E-01
    0.49185373105517633807E-01
    0.46026272139441957998E-01
    0.47747023610358513279E-01
    0.51517153367965431987E-01
    0.53638962531103971665E-01
    0.55841948887826765857E-01
    0.55909178336746051530E-01
    0.58038861865886519353E-01
    0.53520398340393335324E-01
    0.52217859868675962909E-01
    0.39838169278483576141E-01
    0.34732293672689207309E-01
    0.30542330012032239267E-01
    0.26823717489813402037E-01
    0.27542459012443201022E-01
    0.23076188847983042374E-01
    0.25160552937810418822E-01
    0.30323342307889938896E-01
    0.33164790199540689075E-01
    0.36691547034878438382E-01
    0.37361705874302632291E-01
    0.41641229403181233282E-01
    0.33777353488492568856E-01
    0.31685150239783736736E-01
    0.19817432829065645405E-01
    0.13493232536611849542E-01
    0.70454565785825285298E-02
    0.28244963161319918028E-02
    0.55023550936997940239E-02
    0.12561465276837589702E-02
    0.57855152400391601786E-02
    0.11513354044387674041E-01
    0.16510892117311205124E-01
    0.20250118622355147563E-01
    0.19125803573437360344E-01
    0.23646629322409636054E-01
    0.13735736329832439265E-01
    0.11441001661957135929E-01
    0.42779203340926379162E-01
    0.38131969545194009663E-01
    0.33011950922606704550E-01
    0.29601434268652158932E-01
    0.31591519541406168359E-01
    0.27537335175470932513E-01
    0.31147010648413801098E-01
    0.36430158693208078424E-01
    0.40647313976608798192E-01
    0.43770067532249865017E-01
    0.42743418000650491850E-01
    0.45966952251432283139E-01
    0.38430990667517150872E-01
    0.36541224849005495001E-01
    0.21281723704032778910E-01
    0.14815463184913668648E-01
    0.76078126658535704524E-02
    0.31087409449209219177E-02
    0.63100588861176240552E-02
    0.15049437313738758641E-02
    0.71686874321305110377E-02
    0.13830734502012387299E-01
    0.20229643133374924230E-01
    0.24151105866329493355E-01
    0.21882032568365267222E-01
    0.26104771129648016853E-01
    0.15626922325772969052E-01
    0.13192666917432080420E-01
    0.71686874327188338310E-02
    0.13830734504402045215E-01
    0.20229643135531955728E-01
    0.24151105868854348679E-01
    0.21882032571785767217E-01
    0.26104771131946116064E-01
    0.21281723705619592923E-01
    0.14815463184708096978E-01
    0.76078126659937812121E-02
    0.31087409447290966294E-02
    0.63100588846440987603E-02
    0.15049437312994254357E-02
    0.13192666918296434148E-01
    0.15626922326975024868E-01
    0.31147010650756926792E-01
    0.36430158695346562259E-01
    0.40647313978632658438E-01
    0.43770067534114338870E-01
    0.42743418002469370232E-01
    0.45966952253023600494E-01
    0.42779203342566782253E-01
    0.38131969547088265249E-01
    0.33011950924650548811E-01
    0.29601434270851101349E-01
    0.31591519543626565836E-01
    0.27537335177889064181E-01
    0.36541224851072043323E-01
    0.38430990669488802880E-01
    0.57855152407114444554E-02
    0.11513354046926677771E-01
    0.16510892119693514751E-01
    0.20250118625134930911E-01
    0.19125803577081452317E-01
    0.23646629324972585906E-01
    0.19817432830870149868E-01
    0.13493232536554601933E-01
    0.70454565787970990787E-02
    0.28244963159698923023E-02
    0.55023550922888228576E-02
    0.12561465276253328330E-02
    0.11441001662955736437E-01
    0.13735736331192259507E-01
    0.25160552940487818790E-01
    0.30323342310404118732E-01
    0.33164790201982312368E-01
    0.36691547037187972891E-01
    0.37361705876555725836E-01
    0.41641229405244555017E-01
    0.39838169280571433806E-01
    0.34732293674975094067E-01
    0.30542330014416980977E-01
    0.26823717492313620819E-01
    0.27542459014985969101E-01
    0.23076188850689464266E-01
    0.31685150242221980788E-01
    0.33777353490854797324E-01
    0.47747023612105109203E-01
    0.51517153369478103919E-01
    0.53638962532518368043E-01
    0.55841948889058211358E-01
    0.55909178337893890298E-01
    0.58038861866776238208E-01
    0.56458755949487758607E-01
    0.53653129117026028549E-01
    0.50597931286039871113E-01
    0.48299024584432470597E-01
    0.49185373107060767484E-01
    0.46026272141212194733E-01
    0.52217859870075288009E-01
    0.53520398341684656540E-01
    0.56969314636013956843E-01
    0.59092520058566841423E-01
    0.59205460483826070905E-01
    0.60367554858676925056E-01
    0.61380176685785714508E-01
    0.62321293378131512042E-01
    0.62321293378131512042E-01
    0.61380176685785714508E-01
    0.60367554858676918117E-01
    0.59205460483826063967E-01
    0.59092520058566827545E-01
    0.56969314636013949904E-01
    0.60223492879173612380E-01
    0.60896124404398017937E-01
    0.38573892793764399944E-01
    0.42880382948774817264E-01
    0.43760526723501363966E-01
    0.46807203605155972559E-01
    0.48870510350332546645E-01
    0.52578329991553741929E-01
    0.52578329991553741929E-01
    0.48870510350332539706E-01
    0.46807203605155944803E-01
    0.43760526723501315394E-01
    0.42880382948774803387E-01
    0.38573892793764393006E-01
    0.45277098982868274613E-01
    0.47038556247420239276E-01
    0.46026272141212222488E-01
    0.49185373107060767484E-01
    0.48299024584432470597E-01
    0.50597931286039912746E-01
    0.53653129117026035488E-01
    0.56458755949487758607E-01
    0.58038861866776259024E-01
    0.55909178337893897237E-01
    0.55841948889058183603E-01
    0.53638962532518347226E-01
    0.51517153369478103919E-01
    0.47747023612105150836E-01
    0.52217859870075288009E-01
    0.53520398341684670418E-01
    0.34522326902525521213E-02
    0.73975361698189242426E-02
    0.10130887258083597774E-01
    0.13222911790063853268E-01
    0.13590550559842533296E-01
    0.17914943307167082581E-01
    0.15693344248647617817E-01
    0.10313284512589608599E-01
    0.55321104192202737518E-02
    0.21501301013428881712E-02
    0.38932290394877210396E-02
    0.81157730153987809457E-03
    0.80092532098245457911E-02
    0.98652536662382963456E-02
    0.15048061112624092073E-01
    0.19478085828490108999E-01
    0.20333800571003153579E-01
    0.23946233054147163244E-01
    0.26552117918606350788E-01
    0.31550356515461751294E-01
    0.31550356515461758233E-01
    0.26552117918606354258E-01
    0.23946233054147163244E-01
    0.20333800571003139701E-01
    0.19478085828490126347E-01
    0.15048061112624099012E-01
    0.22174844337315577358E-01
    0.24255804084313409286E-01
    0.17154153440863858767E-03
    0.14825521938574798102E-02
    0.10855694045753211483E-02
    0.30675773517677847567E-02
    0.52751466846540605304E-02
    0.89089106393610874302E-02
    0.89089106393610891649E-02
    0.52751466846540613978E-02
    0.30675773517677860577E-02
    0.10855694045753217988E-02
    0.14825521938574795933E-02
    0.17154153440863891293E-03
    0.28968619608851198764E-02
    0.40148057327443727529E-02
    0.81157730153987766089E-03
    0.38932290394877201722E-02
    0.21501301013428881712E-02
    0.55321104192202711497E-02
    0.10313284512589599926E-01
    0.15693344248647631695E-01
    0.17914943307167072173E-01
    0.13590550559842545439E-01
    0.13222911790063841125E-01
    0.10130887258083587366E-01
    0.73975361698189173038E-02
    0.34522326902525482181E-02
    0.80092532098245509953E-02
    0.98652536662382946109E-02
    0.23076188850689467735E-01
    0.27542459014985976040E-01
    0.26823717492313638167E-01
    0.30542330014417012202E-01
    0.34732293674975121822E-01
    0.39838169280571440745E-01
    0.41641229405244568895E-01
    0.37361705876555711958E-01
    0.36691547037187952074E-01
    0.33164790201982312368E-01
    0.30323342310404125671E-01
    0.25160552940487808382E-01
    0.31685150242222015482E-01
    0.33777353490854783447E-01
    0.27537335177889078058E-01
    0.31591519543626593591E-01
    0.29601434270851118696E-01
    0.33011950924650569628E-01
    0.38131969547088279127E-01
    0.42779203342566816948E-01
    0.45966952253023649066E-01
    0.42743418002469384109E-01
    0.43770067534114331931E-01
    0.40647313978632672316E-01
    0.36430158695346596953E-01
    0.31147010650756937200E-01
    0.36541224851072057200E-01