# vtk DataFile Version 3.0
LAPLACIEN  2D
ASCII
DATASET UNSTRUCTURED_GRID
 POINTS         481  float
   6.2500000000000000E-002  0.87500000000000000        0.0000000000000000     
  0.12500000000000000       0.87500000000000000        0.0000000000000000     
  0.12500000000000000       0.93750000000000000        0.0000000000000000     
   3.7499999999999999E-002  0.91249999999999998        0.0000000000000000     
   8.1250000000000003E-002  0.91874999999999996        0.0000000000000000     
   8.7499999999999994E-002  0.96250000000000002        0.0000000000000000     
   4.3749999999999997E-002  0.95625000000000004        0.0000000000000000     
  0.18750000000000000       0.87500000000000000        0.0000000000000000     
  0.25000000000000000       0.87500000000000000        0.0000000000000000     
  0.25000000000000000       0.93750000000000000        0.0000000000000000     
  0.16250000000000001       0.91249999999999998        0.0000000000000000     
  0.20624999999999999       0.91874999999999996        0.0000000000000000     
  0.21249999999999999       0.96250000000000002        0.0000000000000000     
  0.16875000000000001       0.95625000000000004        0.0000000000000000     
   6.2500000000000000E-002  0.75000000000000000        0.0000000000000000     
  0.12500000000000000       0.75000000000000000        0.0000000000000000     
  0.12500000000000000       0.81250000000000000        0.0000000000000000     
   3.7499999999999999E-002  0.78749999999999998        0.0000000000000000     
   8.1250000000000003E-002  0.79374999999999996        0.0000000000000000     
   8.7499999999999994E-002  0.83750000000000002        0.0000000000000000     
   4.3749999999999997E-002  0.83125000000000004        0.0000000000000000     
  0.18750000000000000       0.75000000000000000        0.0000000000000000     
  0.25000000000000000       0.75000000000000000        0.0000000000000000     
  0.25000000000000000       0.81250000000000000        0.0000000000000000     
  0.16250000000000001       0.78749999999999998        0.0000000000000000     
  0.20624999999999999       0.79374999999999996        0.0000000000000000     
  0.21249999999999999       0.83750000000000002        0.0000000000000000     
  0.16875000000000001       0.83125000000000004        0.0000000000000000     
  0.31250000000000000       0.87500000000000000        0.0000000000000000     
  0.37500000000000000       0.87500000000000000        0.0000000000000000     
  0.37500000000000000       0.93750000000000000        0.0000000000000000     
  0.28749999999999998       0.91249999999999998        0.0000000000000000     
  0.33124999999999999       0.91874999999999996        0.0000000000000000     
  0.33750000000000002       0.96250000000000002        0.0000000000000000     
  0.29375000000000001       0.95625000000000004        0.0000000000000000     
  0.43750000000000000       0.87500000000000000        0.0000000000000000     
  0.50000000000000000       0.87500000000000000        0.0000000000000000     
  0.50000000000000000       0.93750000000000000        0.0000000000000000     
  0.41249999999999998       0.91249999999999998        0.0000000000000000     
  0.45624999999999999       0.91874999999999996        0.0000000000000000     
  0.46250000000000002       0.96250000000000002        0.0000000000000000     
  0.41875000000000001       0.95625000000000004        0.0000000000000000     
  0.31250000000000000       0.75000000000000000        0.0000000000000000     
  0.37500000000000000       0.75000000000000000        0.0000000000000000     
  0.37500000000000000       0.81250000000000000        0.0000000000000000     
  0.28749999999999998       0.78749999999999998        0.0000000000000000     
  0.33124999999999999       0.79374999999999996        0.0000000000000000     
  0.33750000000000002       0.83750000000000002        0.0000000000000000     
  0.29375000000000001       0.83125000000000004        0.0000000000000000     
  0.43750000000000000       0.75000000000000000        0.0000000000000000     
  0.50000000000000000       0.75000000000000000        0.0000000000000000     
  0.50000000000000000       0.81250000000000000        0.0000000000000000     
  0.41249999999999998       0.78749999999999998        0.0000000000000000     
  0.45624999999999999       0.79374999999999996        0.0000000000000000     
  0.46250000000000002       0.83750000000000002        0.0000000000000000     
  0.41875000000000001       0.83125000000000004        0.0000000000000000     
   6.2500000000000000E-002  0.62500000000000000        0.0000000000000000     
  0.12500000000000000       0.62500000000000000        0.0000000000000000     
  0.12500000000000000       0.68750000000000000        0.0000000000000000     
   3.7499999999999999E-002  0.66249999999999998        0.0000000000000000     
   8.1250000000000003E-002  0.66874999999999996        0.0000000000000000     
   8.7499999999999994E-002  0.71250000000000002        0.0000000000000000     
   4.3749999999999997E-002  0.70625000000000004        0.0000000000000000     
  0.18750000000000000       0.62500000000000000        0.0000000000000000     
  0.25000000000000000       0.62500000000000000        0.0000000000000000     
  0.25000000000000000       0.68750000000000000        0.0000000000000000     
  0.16250000000000001       0.66249999999999998        0.0000000000000000     
  0.20624999999999999       0.66874999999999996        0.0000000000000000     
  0.21249999999999999       0.71250000000000002        0.0000000000000000     
  0.16875000000000001       0.70625000000000004        0.0000000000000000     
   6.2500000000000000E-002  0.50000000000000000        0.0000000000000000     
  0.12500000000000000       0.50000000000000000        0.0000000000000000     
  0.12500000000000000       0.56250000000000000        0.0000000000000000     
   3.7499999999999999E-002  0.53749999999999998        0.0000000000000000     
   8.1250000000000003E-002  0.54374999999999996        0.0000000000000000     
   8.7499999999999994E-002  0.58750000000000002        0.0000000000000000     
   4.3749999999999997E-002  0.58125000000000004        0.0000000000000000     
  0.18750000000000000       0.50000000000000000        0.0000000000000000     
  0.25000000000000000       0.50000000000000000        0.0000000000000000     
  0.25000000000000000       0.56250000000000000        0.0000000000000000     
  0.16250000000000001       0.53749999999999998        0.0000000000000000     
  0.20624999999999999       0.54374999999999996        0.0000000000000000     
  0.21249999999999999       0.58750000000000002        0.0000000000000000     
  0.16875000000000001       0.58125000000000004        0.0000000000000000     
  0.31250000000000000       0.62500000000000000        0.0000000000000000     
  0.37500000000000000       0.62500000000000000        0.0000000000000000     
  0.37500000000000000       0.68750000000000000        0.0000000000000000     
  0.28749999999999998       0.66249999999999998        0.0000000000000000     
  0.33124999999999999       0.66874999999999996        0.0000000000000000     
  0.33750000000000002       0.71250000000000002        0.0000000000000000     
  0.29375000000000001       0.70625000000000004        0.0000000000000000     
  0.43750000000000000       0.62500000000000000        0.0000000000000000     
  0.50000000000000000       0.62500000000000000        0.0000000000000000     
  0.50000000000000000       0.68750000000000000        0.0000000000000000     
  0.41249999999999998       0.66249999999999998        0.0000000000000000     
  0.45624999999999999       0.66874999999999996        0.0000000000000000     
  0.46250000000000002       0.71250000000000002        0.0000000000000000     
  0.41875000000000001       0.70625000000000004        0.0000000000000000     
  0.31250000000000000       0.50000000000000000        0.0000000000000000     
  0.37500000000000000       0.50000000000000000        0.0000000000000000     
  0.37500000000000000       0.56250000000000000        0.0000000000000000     
  0.28749999999999998       0.53749999999999998        0.0000000000000000     
  0.33124999999999999       0.54374999999999996        0.0000000000000000     
  0.33750000000000002       0.58750000000000002        0.0000000000000000     
  0.29375000000000001       0.58125000000000004        0.0000000000000000     
  0.43750000000000000       0.50000000000000000        0.0000000000000000     
  0.50000000000000000       0.50000000000000000        0.0000000000000000     
  0.50000000000000000       0.56250000000000000        0.0000000000000000     
  0.41249999999999998       0.53749999999999998        0.0000000000000000     
  0.45624999999999999       0.54374999999999996        0.0000000000000000     
  0.46250000000000002       0.58750000000000002        0.0000000000000000     
  0.41875000000000001       0.58125000000000004        0.0000000000000000     
  0.56250000000000000       0.87500000000000000        0.0000000000000000     
  0.62500000000000000       0.87500000000000000        0.0000000000000000     
  0.62500000000000000       0.93750000000000000        0.0000000000000000     
  0.53749999999999998       0.91249999999999998        0.0000000000000000     
  0.58125000000000004       0.91874999999999996        0.0000000000000000     
  0.58750000000000002       0.96250000000000002        0.0000000000000000     
  0.54374999999999996       0.95625000000000004        0.0000000000000000     
  0.68750000000000000       0.87500000000000000        0.0000000000000000     
  0.75000000000000000       0.87500000000000000        0.0000000000000000     
  0.75000000000000000       0.93750000000000000        0.0000000000000000     
  0.66249999999999998       0.91249999999999998        0.0000000000000000     
  0.70625000000000004       0.91874999999999996        0.0000000000000000     
  0.71250000000000002       0.96250000000000002        0.0000000000000000     
[...]
 CELL_DATA         896
 SCALARS Uexacte float
 LOOKUP_TABLE default
    0.31680679321289067184E-02
    0.51249729091423059171E-02
    0.84828186035156277062E-02
    0.84828186035156259714E-02
    0.51249728602498351160E-02
    0.31680679321289062847E-02
    0.52768707275390434614E-03
    0.15281235580567053851E-02
    0.37368774414062367510E-03
    0.37368774414062503036E-03
    0.15281233996384331782E-02
    0.52768707275390618928E-03
    0.34068259600549947487E-02
    0.34068259600549917129E-02
    0.13796424865722658332E-01
    0.13484557834351840536E-01
    0.17063140869140631939E-01
    0.15385894775390623890E-01
    0.10008051794338895454E-01
    0.55804824829101557643E-02
    0.10614395141601525637E-02
    0.39271421120174680036E-02
    0.16273498535156192320E-02
    0.35902404785156253123E-02
    0.76483379177144910493E-02
    0.96875381469726552786E-02
    0.94324045781046181314E-02
    0.83750522736459939027E-02
    0.55804824829101566316E-02
    0.10008052251239143993E-01
    0.15385894775390625625E-01
    0.17063140869140625000E-01
    0.13484558321322649699E-01
    0.13796424865722654862E-01
    0.96875381469726535438E-02
    0.76483375813729400847E-02
    0.35902404785156240112E-02
    0.16273498535156250867E-02
    0.39271415321974686985E-02
    0.10614395141601562500E-02
    0.83750522736459973722E-02
    0.94324045781046129272E-02
    0.24302101135253908332E-01
    0.26332658100554663660E-01
    0.30948638916015631939E-01
    0.30948638916015618061E-01
    0.26332658100554667130E-01
    0.24302101135253904862E-01
    0.19486427307128902781E-01
    0.19655549739009344629E-01
    0.15634918212890619449E-01
    0.15634918212890626388E-01
    0.19655549739009344629E-01
    0.19486427307128906250E-01
    0.23187824190035465771E-01
    0.23187824190035458832E-01
    0.21154518127441408748E-01
    0.19065668183085925785E-01
    0.22523345947265634159E-01
    0.19633941650390625278E-01
    0.13089834709821026454E-01
    0.70468521118164069786E-02
    0.14011001586914013407E-02
    0.55241631320806306241E-02
    0.24952697753906163437E-02
    0.58607482910156254857E-02
    0.11907812881485660764E-01
    0.16192359924316408054E-01
    0.13478326976671818616E-01
    0.11662694633379575709E-01
    0.25242347717285160136E-01
    0.21868303721372824716E-01
    0.24863433837890636102E-01
    0.21226959228515623196E-01
    0.14370321421616951557E-01
    0.75671768188476564582E-02
    0.15466690063476507856E-02
    0.63191866854466084008E-02
    0.29774475097656145223E-02
    0.71852111816406256592E-02
    0.14306548516570632285E-01
    0.20042152404785157360E-01
    0.15544593155756597502E-01
    0.13269753039255732796E-01
    0.37263221740722655972E-01
    0.37231456002573250219E-01
    0.40852203369140631384E-01
    0.39493560791015625000E-01
    0.34441282788071299337E-01
    0.30687904357910158332E-01
    0.25722084045410154030E-01
    0.27648722687357005223E-01
    0.23973541259765619726E-01
    0.25522613525390626388E-01
    0.30602022412315015021E-01
    0.32570838928222656250E-01
    0.33133976996317510144E-01
    0.32290247738733887650E-01
    0.44463844299316407360E-01
    0.42704445500394649926E-01
    0.45096588134765636102E-01
    0.42697906494140618061E-01
    0.37810431896901725013E-01
    0.32953834533691404862E-01
    0.28394508361816402087E-01
    0.31627856762757484976E-01
    0.28606109619140618339E-01
    0.31290435791015626388E-01
    0.36766560131934487854E-01
    0.40314674377441406250E-01
    0.38213510692492132226E-01
    0.36739675224199887238E-01
    0.70468521118164061112E-02
    0.13089835307414724938E-01
    0.19633941650390625278E-01
    0.22523345947265623751E-01
    0.19065668871608605628E-01
    0.21154518127441405279E-01
    0.16192359924316404585E-01
    0.11907812357830420066E-01
    0.58607482910156246184E-02
    0.24952697753906254510E-02
    0.55241623164696412873E-02
    0.14011001586914063281E-02
    0.11662694633379580914E-01
    0.13478326976671811677E-01
    0.30687904357910158332E-01
    0.34441282788071285459E-01
    0.39493560791015625000E-01
    0.40852203369140617506E-01
    0.37231456002573250219E-01
    0.37263221740722649034E-01
    0.32570838928222656250E-01
    0.30602022412315015021E-01
    0.25522613525390619449E-01
    0.23973541259765626665E-01
    0.27648722687357012162E-01
    0.25722084045410157499E-01
    0.32290247738733887650E-01
    0.33133976996317503205E-01
    0.75671768188476564582E-02
    0.14370322077669053090E-01
    0.21226959228515626665E-01
    0.24863433837890622224E-01
    0.21868304511107695964E-01
    0.25242347717285156666E-01
    0.20042152404785157360E-01
    0.14306547887429146848E-01
    0.71852111816406247918E-02
    0.29774475097656253643E-02
    0.63191857524549531130E-02
    0.15466690063476564235E-02
    0.13269753039255738000E-01
    0.15544593155756588829E-01
    0.32953834533691404862E-01
    0.37810431896901711135E-01
    0.42697906494140625000E-01
    0.45096588134765622224E-01
    0.42704445500394649926E-01
    0.44463844299316400421E-01
    0.40314674377441406250E-01
    0.36766560131934494793E-01
    0.31290435791015619449E-01
    0.28606109619140625278E-01
    0.31627856762757491915E-01
    0.28394508361816409026E-01
    0.36739675224199894177E-01
    0.38213510692492125287E-01
    0.47054786682128903197E-01
    0.48696151368374379631E-01
    0.52131500244140628608E-01
    0.52131500244140621669E-01
    0.48696151368374379631E-01
    0.47054786682128910136E-01
    0.42993507385253905417E-01
    0.43046714163947175091E-01
    0.39134674072265625278E-01
    0.39134674072265632216E-01
    0.43046714163947182030E-01
    0.42993507385253905417E-01
    0.46140781343355773136E-01
    0.46140781343355773136E-01
    0.56147499084472654585E-01
    0.55854440450730277745E-01
    0.57547760009765629163E-01
    0.56361236572265618894E-01
    0.53459754280489303613E-01
    0.50529212951660157360E-01
    0.47460365295410152087E-01
    0.49241888136382160057E-01
    0.46696929931640623890E-01
    0.47978668212890623890E-01
    0.51718137561851153239E-01
    0.53215370178222656805E-01
    0.53214295447245235637E-01
    0.52498740017786621470E-01
    0.50529212951660150421E-01
    0.53459754280489303613E-01
    0.56361236572265625833E-01
    0.57547760009765622224E-01
    0.55854440450730277745E-01
    0.56147499084472654585E-01
    0.53215370178222656805E-01
    0.51718137561851153239E-01
    0.47978668212890623890E-01
    0.46696929931640630829E-01
    0.49241888136382160057E-01
    0.47460365295410152087E-01
    0.52498740017786621470E-01
    0.53214295447245242576E-01
    0.60293312072753901809E-01
    0.61318288572379704704E-01
    0.62216949462890629163E-01
    0.62216949462890622224E-01
    0.61318288572379704704E-01
    0.60293312072753901809E-01
    0.58744239807128902087E-01
    0.59161280806320631909E-01
    0.57249908447265629441E-01
    0.57249908447265629441E-01
    0.59161280806320631909E-01
    0.58744239807128909026E-01
    0.60546947420015935493E-01
    0.60546947420015928554E-01
    0.26059913635253912495E-01
    0.21892464449212535593E-01
    0.24083404541015630829E-01
    0.20164947509765624584E-01
    0.13849511929726679438E-01
    0.71414566040039059377E-02
    0.14981460571289008984E-02
    0.63122127721153987318E-02
    0.30738830566406139845E-02
    0.75636291503906249653E-02
    0.14844544822969405612E-01
    0.21236915588378906666E-01
    0.15631203115358954792E-01
    0.13196227491274472102E-01
    0.23607215881347658887E-01
    0.19138150366605054947E-01
    0.20183258056640628747E-01
    0.16447906494140622502E-01
    0.11527406234150206626E-01
    0.57696914672851562847E-02
    0.12555313110351518958E-02
    0.55032413920870033516E-02
    0.27845764160156151641E-02
    0.69960021972656251388E-02
    0.13521801800681979011E-01
    0.19776649475097655972E-01
    0.13738156855478887014E-01
    0.11442117989435786687E-01
    0.45903968811035159026E-01
    0.42751626594018855843E-01
    0.43681793212890625278E-01
    0.40561676025390625000E-01
    0.36440105427045947628E-01
    0.31099891662597654862E-01
    0.27503700256347653891E-01
    0.31592951965210773480E-01
    0.29532623291015615286E-01
    0.32938385009765626388E-01
    0.38149162897867766597E-01
    0.42717933654785156250E-01
    0.38426425278559328547E-01
    0.36536106646433468004E-01
    0.41583595275878910968E-01
    0.37372999283445881846E-01
    0.36607818603515626665E-01
    0.33084869384765618061E-01
    0.30330303378503974121E-01
    0.25126075744628904862E-01
    0.23049659729003902503E-01
    0.27544008294716877672E-01
    0.26753082275390617506E-01
    0.30466461181640626388E-01
    0.34749830710114837373E-01
    0.39780616760253906250E-01
    0.33772720754519106046E-01
    0.31679542005434629948E-01
    0.17884254455566409719E-01
    0.13605361473550386248E-01
    0.13162994384765629857E-01
    0.10075836181640623890E-01
    0.74040043348875305210E-02
    0.34518814086914057643E-02
    0.81882476806640334434E-03
    0.38922725453614218268E-02
    0.21095275878906176274E-02
    0.54823303222656261796E-02
    0.10338319449708354217E-01
    0.15661354064941408748E-01
    0.98654543761163993737E-02
    0.80074245337396817573E-02
    0.88910293579101580541E-02
    0.52940977700485286270E-02
    0.30226135253906259194E-02
    0.10487365722656213744E-02
    0.14793062319386541571E-02
    0.18802642822265556912E-03
    0.18802642822265559623E-03
    0.14793062319386541571E-02
    0.10487365722656213744E-02
    0.30226135253906259194E-02
    0.52940977700485286270E-02
    0.88910293579101580541E-02
    0.40130956772714875339E-02
    0.28921471241861564441E-02
    0.31502723693847656250E-01
    0.26568563568675707121E-01
    0.23874664306640629857E-01
    0.20267486572265618061E-01
    0.19481025751275801022E-01
    0.15032386779785154862E-01
    0.15032386779785153127E-01
    0.19481025751275797553E-01
    0.20267486572265618061E-01
    0.23874664306640629857E-01
    0.26568563568675714059E-01
    0.31502723693847663189E-01
    0.24252397120371464723E-01
    0.22169981301203366131E-01
    0.15661354064941408748E-01
    0.10338319449708354217E-01
    0.54823303222656261796E-02
    0.21095275878906176274E-02
    0.38922725453614218268E-02
    0.81882476806640323592E-03
    0.34518814086914057643E-02
    0.74040043348875305210E-02
    0.10075836181640622155E-01
    0.13162994384765629857E-01
    0.13605361473550384513E-01
    0.17884254455566409719E-01
    0.98654543761163993737E-02
    0.80074245337396834921E-02
    0.57966041564941409026E-01
    0.55916150035138986740E-01
    0.55742340087890626665E-01
    0.53541412353515629996E-01
    0.51522264738918029103E-01
    0.47686500549316404585E-01
    0.45971412658691403197E-01
    0.49187544329619949102E-01
    0.48209381103515615286E-01
    0.50505523681640622502E-01
    0.53662992881068932727E-01
    0.56387672424316401254E-01
    0.53510790050402282092E-01
    0.52207853019610048206E-01
    0.52510414123535159581E-01
    0.48881280121600499677E-01
    0.46715240478515621114E-01
    0.43672027587890627220E-01
    0.42883682743660556103E-01
    0.38526649475097658748E-01
    0.38526649475097658748E-01
    0.42883682743660556103E-01
    0.43672027587890620282E-01
    0.46715240478515628053E-01
    0.48881280121600499677E-01
    0.52510414123535159581E-01
    0.47030265152826912500E-01
    0.45268120348826046406E-01
    0.62246131896972659026E-01
    0.61386034772572900531E-01
    0.60265045166015628053E-01
    0.59104156494140629163E-01
    0.59095989865342930802E-01
    0.56901283264160162911E-01
    0.56901283264160155972E-01
    0.59095989865342923864E-01
    0.59104156494140615286E-01
    0.60265045166015628053E-01
    0.61386034772572914409E-01
    0.62246131896972652087E-01
    0.60884297430887822367E-01
    0.60211466610804197097E-01
    0.56387672424316408193E-01
    0.53662992881068932727E-01
    0.50505523681640622502E-01
    0.48209381103515615286E-01
    0.49187544329619956041E-01
    0.45971412658691403197E-01
    0.47686500549316404585E-01
    0.51522264738918036042E-01
    0.53541412353515623057E-01
    0.55742340087890626665E-01
    0.55916150035138993679E-01
    0.57966041564941409026E-01
    0.53510790050402282092E-01
    0.52207853019610048206E-01
    0.39780616760253906250E-01
    0.34749830710114837373E-01
    0.30466461181640629857E-01
    0.26753082275390617506E-01
    0.27544008294716881141E-01
    0.23049659729003902503E-01
    0.25126075744628904862E-01
    0.30330303378503974121E-01
    0.33084869384765618061E-01
    0.36607818603515633604E-01
    0.37372999283445881846E-01
    0.41583595275878910968E-01
    0.33772720754519106046E-01
    0.31679542005434629948E-01
    0.19776649475097655972E-01
    0.13521801800681979011E-01
    0.69960021972656260061E-02
    0.27845764160156155978E-02
    0.55032413920870033516E-02
    0.12555313110351518958E-02
    0.57696914672851562847E-02
    0.11527406234150204892E-01
    0.16447906494140625971E-01
    0.20183258056640632216E-01
    0.19138150366605054947E-01
    0.23607215881347658887E-01
    0.13738156855478887014E-01
    0.11442117989435788422E-01
    0.42717933654785156250E-01
    0.38149162897867759658E-01
    0.32938385009765626388E-01
    0.29532623291015618755E-01
    0.31592951965210773480E-01
    0.27503700256347650421E-01
    0.31099891662597654862E-01
    0.36440105427045947628E-01
    0.40561676025390625000E-01
    0.43681793212890632216E-01
    0.42751626594018862781E-01
    0.45903968811035165964E-01
    0.38426425278559328547E-01
    0.36536106646433468004E-01
    0.21236915588378906666E-01
    0.14844544822969407347E-01
    0.75636291503906249653E-02
    0.30738830566406144182E-02
    0.63122127721153995991E-02
    0.14981460571289008984E-02
    0.71414566040039068051E-02
    0.13849511929726679438E-01
    0.20164947509765624584E-01
    0.24083404541015634298E-01
    0.21892464449212532124E-01
    0.26059913635253909026E-01
    0.15631203115358954792E-01
    0.13196227491274470367E-01
    0.71414566040039059377E-02
    0.13849512562002124980E-01
    0.20164947509765624584E-01
    0.24083404541015623890E-01
    0.21892465239819924178E-01
    0.26059913635253905556E-01
    0.21236915588378906666E-01
    0.14844544170169117828E-01
    0.75636291503906240979E-02
    0.30738830566406252602E-02
    0.63122118401534024409E-02
    0.14981460571289063194E-02
    0.13196227491274477306E-01
    0.15631203115358947853E-01
    0.31099891662597658332E-01
    0.36440105427045940689E-01
    0.40561676025390625000E-01
    0.43681793212890618339E-01
    0.42751626594018848904E-01
    0.45903968811035152087E-01
    0.42717933654785156250E-01
    0.38149162897867766597E-01
    0.32938385009765619449E-01
    0.29532623291015625694E-01
    0.31592951965210787357E-01
    0.27503700256347657360E-01
    0.36536106646433474943E-01
    0.38426425278559328547E-01
    0.57696914672851562847E-02
    0.11527406760413942341E-01
    0.16447906494140625971E-01
    0.20183258056640625278E-01
    0.19138151057745297207E-01
    0.23607215881347655417E-01
    0.19776649475097659442E-01
    0.13521801206050333005E-01
    0.69960021972656242714E-02
    0.27845764160156255725E-02
    0.55032405795649892710E-02
    0.12555313110351562327E-02
    0.11442117989435791892E-01
    0.13738156855478881810E-01
    0.25126075744628908332E-01
    0.30330303378503967182E-01
    0.33084869384765625000E-01
    0.36607818603515619726E-01
    0.37372999283445874907E-01
    0.41583595275878897091E-01
    0.39780616760253906250E-01
    0.34749830710114844312E-01
    0.30466461181640622918E-01
    0.26753082275390627914E-01
    0.27544008294716888080E-01
    0.23049659729003909442E-01
    0.31679542005434636887E-01
    0.33772720754519099107E-01
    0.47686500549316397646E-01
    0.51522264738918029103E-01
    0.53541412353515629996E-01
    0.55742340087890619726E-01
    0.55916150035138986740E-01
    0.57966041564941409026E-01
    0.56387672424316408193E-01
    0.53662992881068932727E-01
    0.50505523681640615563E-01
    0.48209381103515629163E-01
    0.49187544329619956041E-01
    0.45971412658691403197E-01
    0.52207853019610041267E-01
    0.53510790050402289031E-01
    0.56901283264160149034E-01
    0.59095989865342930802E-01
    0.59104156494140629163E-01
    0.60265045166015621114E-01
    0.61386034772572907470E-01
    0.62246131896972659026E-01
    0.62246131896972652087E-01
    0.61386034772572907470E-01
    0.60265045166015614175E-01
    0.59104156494140629163E-01
    0.59095989865342923864E-01
    0.56901283264160162911E-01
    0.60211466610804197097E-01
    0.60884297430887815428E-01
    0.38526649475097651809E-01
    0.42883682743660556103E-01
    0.43672027587890627220E-01
    0.46715240478515621114E-01
    0.48881280121600506616E-01
    0.52510414123535159581E-01
    0.52510414123535159581E-01
    0.48881280121600499677E-01
    0.46715240478515621114E-01
    0.43672027587890634159E-01
    0.42883682743660556103E-01
    0.38526649475097658748E-01
    0.45268120348826046406E-01
    0.47030265152826912500E-01
    0.45971412658691403197E-01
    0.49187544329619962979E-01
    0.48209381103515629163E-01
    0.50505523681640622502E-01
    0.53662992881068932727E-01
    0.56387672424316408193E-01
    0.57966041564941402087E-01
    0.55916150035138979801E-01
    0.55742340087890619726E-01
    0.53541412353515623057E-01
    0.51522264738918022164E-01
    0.47686500549316404585E-01
    0.52207853019610048206E-01
    0.53510790050402289031E-01
    0.34518814086914066316E-02
    0.74040046729045069090E-02
    0.10075836181640625625E-01
    0.13162994384765624653E-01
    0.13605361964883806378E-01
    0.17884254455566406250E-01
    0.15661354064941405279E-01
    0.10338318995072794115E-01
    0.54823303222656244449E-02
    0.21095275878906250000E-02
    0.38922719706897136033E-02
    0.81882476806640627168E-03
    0.80074245337396869615E-02
    0.98654543761163941695E-02
    0.15032386779785156597E-01
    0.19481025751275797553E-01
    0.20267486572265628469E-01
    0.23874664306640619449E-01
    0.26568563568675714059E-01
    0.31502723693847656250E-01
    0.31502723693847656250E-01
    0.26568563568675710590E-01
    0.23874664306640622918E-01
    0.20267486572265625000E-01
    0.19481025751275801022E-01
    0.15032386779785158332E-01
    0.22169981301203373070E-01
    0.24252397120371457784E-01
    0.18802642822265624675E-03
    0.14793060810627271708E-02
    0.10487365722656252776E-02
    0.30226135253906250520E-02
    0.52940977284234146810E-02
    0.88910293579101563194E-02
    0.88910293579101545847E-02
    0.52940977284234146810E-02
    0.30226135253906250520E-02
    0.10487365722656250607E-02
    0.14793060810627273877E-02
    0.18802642822265624675E-03
    0.28921471241861581788E-02
    0.40130956772714840644E-02
    0.81882476806640627168E-03
    0.38922719706897131696E-02
    0.21095275878906250000E-02
    0.54823303222656244449E-02
    0.10338318995072795850E-01
    0.15661354064941405279E-01
    0.17884254455566406250E-01
    0.13605361964883806378E-01
    0.13162994384765624653E-01
    0.10075836181640625625E-01
    0.74040046729045077764E-02
    0.34518814086914061980E-02
    0.80074245337396869615E-02
    0.98654543761163924348E-02
    0.23049659729003909442E-01
    0.27544008294716884611E-01
    0.26753082275390627914E-01
    0.30466461181640619449E-01
    0.34749830710114837373E-01
    0.39780616760253906250E-01
    0.41583595275878904030E-01
    0.37372999283445874907E-01
    0.36607818603515619726E-01
    0.33084869384765625000E-01
    0.30330303378503967182E-01
    0.25126075744628904862E-01
    0.31679542005434629948E-01
    0.33772720754519099107E-01
    0.27503700256347660830E-01
    0.31592951965210787357E-01
    0.29532623291015625694E-01
    0.32938385009765619449E-01
    0.38149162897867766597E-01
    0.42717933654785156250E-01
    0.45903968811035152087E-01
    0.42751626594018855843E-01
    0.43681793212890618339E-01
    0.40561676025390631939E-01
    0.36440105427045940689E-01
    0.31099891662597654862E-01